# Time	Temperature	Voltage	for 10 mA drive current
0.0000e+00	2.9105e+02	1.5004e-04
1.3951e+00	2.9117e+02	1.5004e-04
2.6703e+00	2.9105e+02	1.5003e-04
3.9324e+00	2.9117e+02	1.5004e-04
5.2045e+00	2.9105e+02	1.5004e-04
6.4606e+00	2.9117e+02	1.5004e-04
7.6968e+00	2.9105e+02	1.5003e-04
8.9899e+00	2.9117e+02	1.5004e-04
1.0313e+01	2.9106e+02	1.5003e-04
1.1620e+01	2.9117e+02	1.5003e-04
1.2921e+01	2.9106e+02	1.5003e-04
1.4232e+01	2.9117e+02	1.5006e-04
1.5539e+01	2.9106e+02	1.5001e-04
1.6855e+01	2.9115e+02	1.5009e-04
1.8164e+01	2.9090e+02	1.5005e-04
1.9470e+01	2.9031e+02	1.5000e-04
2.0762e+01	2.8848e+02	1.4999e-04
2.2079e+01	2.8594e+02	1.5002e-04
2.3399e+01	2.8269e+02	1.4991e-04
2.4705e+01	2.7945e+02	1.5016e-04
2.6016e+01	2.7591e+02	1.4981e-04
2.7332e+01	2.7272e+02	1.5022e-04
2.8636e+01	2.6962e+02	1.4982e-04
2.9958e+01	2.6699e+02	1.5027e-04
3.1278e+01	2.6439e+02	1.5004e-04
3.2591e+01	2.6224e+02	1.5027e-04
3.3919e+01	2.6011e+02	1.4997e-04
3.5243e+01	2.5844e+02	1.5013e-04
3.6573e+01	2.5654e+02	1.4972e-04
3.7915e+01	2.5491e+02	1.4999e-04
3.9245e+01	2.5307e+02	1.4933e-04
4.0583e+01	2.5160e+02	1.4953e-04
4.1905e+01	2.5013e+02	1.4910e-04
4.3242e+01	2.4899e+02	1.4901e-04
4.4571e+01	2.4774e+02	1.4874e-04
4.5911e+01	2.4672e+02	1.4859e-04
4.7247e+01	2.4579e+02	1.4833e-04
4.8584e+01	2.4508e+02	1.4819e-04
4.9919e+01	2.4423e+02	1.4796e-04
5.1268e+01	2.4349e+02	1.4771e-04
5.2613e+01	2.4277e+02	1.4745e-04
5.3968e+01	2.4237e+02	1.4732e-04
5.5304e+01	2.4206e+02	1.4717e-04
5.6648e+01	2.4211e+02	1.4681e-04
5.8000e+01	2.4207e+02	1.4685e-04
5.9341e+01	2.4231e+02	1.4643e-04
6.0676e+01	2.4240e+02	1.4648e-04
6.2031e+01	2.4277e+02	1.4614e-04
6.3401e+01	2.4309e+02	1.4615e-04
6.4752e+01	2.4378e+02	1.4584e-04
6.6102e+01	2.4442e+02	1.4592e-04
6.7455e+01	2.4532e+02	1.4558e-04
6.8808e+01	2.4608e+02	1.4567e-04
7.0159e+01	2.4701e+02	1.4539e-04
7.1505e+01	2.4774e+02	1.4545e-04
7.2856e+01	2.4860e+02	1.4524e-04
7.4224e+01	2.4925e+02	1.4523e-04
7.5591e+01	2.4986e+02	1.4512e-04
7.6956e+01	2.5019e+02	1.4505e-04
7.8323e+01	2.4902e+02	1.4510e-04
7.9678e+01	2.4701e+02	1.4450e-04
8.1029e+01	2.4514e+02	1.4514e-04
8.2415e+01	2.4323e+02	1.4437e-04
8.3785e+01	2.4168e+02	1.4467e-04
8.5164e+01	2.4012e+02	1.4429e-04
8.6520e+01	2.3888e+02	1.4439e-04
8.7895e+01	2.3763e+02	1.4414e-04
8.9262e+01	2.3670e+02	1.4412e-04
9.0633e+01	2.3568e+02	1.4398e-04
9.2001e+01	2.3496e+02	1.4380e-04
9.3373e+01	2.3417e+02	1.4374e-04
9.4753e+01	2.3362e+02	1.4352e-04
9.6136e+01	2.3301e+02	1.4353e-04
9.7507e+01	2.3266e+02	1.4330e-04
9.8896e+01	2.3207e+02	1.4315e-04
1.0027e+02	2.3164e+02	1.4302e-04
1.0167e+02	2.3107e+02	1.4299e-04
1.0305e+02	2.3068e+02	1.4269e-04
1.0445e+02	2.3016e+02	1.4269e-04
1.0584e+02	2.2980e+02	1.4249e-04
1.0722e+02	2.2932e+02	1.4254e-04
1.0861e+02	2.2900e+02	1.4219e-04
1.1001e+02	2.2853e+02	1.4230e-04
1.1141e+02	2.2824e+02	1.4200e-04
1.1280e+02	2.2785e+02	1.4206e-04
1.1420e+02	2.2766e+02	1.4174e-04
1.1559e+02	2.2733e+02	1.4184e-04
1.1698e+02	2.2711e+02	1.4142e-04
1.1838e+02	2.2658e+02	1.4167e-04
1.1978e+02	2.2606e+02	1.4120e-04
1.2118e+02	2.2592e+02	1.4145e-04
1.2257e+02	2.2600e+02	1.4117e-04
1.2398e+02	2.2559e+02	1.4039e-04
1.2540e+02	2.2527e+02	1.4084e-04
1.2681e+02	2.2472e+02	1.4072e-04
1.2822e+02	2.2433e+02	1.4020e-04
1.2962e+02	2.2375e+02	1.4033e-04
1.3104e+02	2.2332e+02	1.3973e-04
1.3241e+02	2.2268e+02	1.4004e-04
1.3385e+02	2.2219e+02	1.3930e-04
1.3525e+02	2.2152e+02	1.3949e-04
1.3668e+02	2.2100e+02	1.3878e-04
1.3810e+02	2.2030e+02	1.3902e-04
1.3953e+02	2.1979e+02	1.3815e-04
1.4095e+02	2.1909e+02	1.3846e-04
1.4237e+02	2.1857e+02	1.3736e-04
1.4403e+02	2.1787e+02	1.3788e-04
1.4546e+02	2.1720e+02	1.3759e-04
1.4689e+02	2.1669e+02	1.3608e-04
1.4834e+02	2.1602e+02	1.3680e-04
1.4976e+02	2.1547e+02	1.3533e-04
1.5120e+02	2.1466e+02	1.3529e-04
1.5263e+02	2.1392e+02	1.3449e-04
1.5406e+02	2.1307e+02	1.3444e-04
1.5548e+02	2.1240e+02	1.3312e-04
1.5691e+02	2.1161e+02	1.3352e-04
1.5836e+02	2.1092e+02	1.3184e-04
1.5979e+02	2.1004e+02	1.3237e-04
1.6123e+02	2.0926e+02	1.3062e-04
1.6267e+02	2.0832e+02	1.3104e-04
1.6409e+02	2.0744e+02	1.2933e-04
1.6553e+02	2.0636e+02	1.2972e-04
1.6699e+02	2.0539e+02	1.2786e-04
1.6843e+02	2.0426e+02	1.2818e-04
1.6988e+02	2.0319e+02	1.2639e-04
1.7129e+02	2.0198e+02	1.2681e-04
1.7274e+02	2.0084e+02	1.2494e-04
1.7418e+02	1.9945e+02	1.2532e-04
1.7563e+02	1.9804e+02	1.2320e-04
1.7709e+02	1.9649e+02	1.2385e-04
1.7852e+02	1.9510e+02	1.2027e-04
1.7995e+02	1.9358e+02	1.2272e-04
1.8138e+02	1.9217e+02	1.1571e-04
1.8284e+02	1.9060e+02	1.2264e-04
1.8430e+02	1.8865e+02	1.1216e-04
1.8575e+02	1.8627e+02	1.1908e-04
1.8721e+02	1.8314e+02	1.0825e-04
1.8868e+02	1.7951e+02	1.1162e-04
1.9015e+02	1.7537e+02	1.0344e-04
1.9163e+02	1.7059e+02	1.0142e-04
1.9308e+02	1.6537e+02	9.3465e-05
1.9452e+02	1.5948e+02	7.7142e-05
1.9601e+02	1.5332e+02	6.8966e-05
1.9748e+02	1.4741e+02	2.7452e-05
1.9894e+02	1.4201e+02	1.1037e-05
2.0040e+02	1.3711e+02	9.0216e-06
2.0187e+02	1.3258e+02	9.9176e-06
2.0332e+02	1.2895e+02	6.4098e-06
2.0478e+02	1.2584e+02	5.2506e-06
2.0627e+02	1.2244e+02	5.6718e-07
2.0775e+02	1.1932e+02	2.1283e-08
2.0924e+02	1.1330e+02	1.3774e-07
2.1073e+02	1.1021e+02	1.7039e-08
2.1221e+02	1.0972e+02	4.5376e-08
2.1370e+02	1.0934e+02	2.1223e-08
2.1517e+02	1.0904e+02	3.3180e-08
2.1663e+02	1.0886e+02	2.3914e-09
2.1812e+02	1.0871e+02	3.7066e-09
2.1961e+02	1.0857e+02	2.9294e-09
2.2109e+02	1.0854e+02	1.0761e-09
2.2255e+02	1.0861e+02	1.5843e-08
2.2405e+02	1.0863e+02	1.3571e-08
2.2555e+02	1.0865e+02	8.3698e-09
2.2703e+02	1.0867e+02	6.2774e-09
2.2851e+02	1.0868e+02	1.8234e-08
2.3001e+02	1.0869e+02	1.1120e-08
2.3153e+02	1.0869e+02	5.1415e-09
2.3305e+02	1.0868e+02	9.8046e-09
2.3452e+02	1.0867e+02	2.3914e-09
2.3604e+02	1.0865e+02	2.6604e-08
2.3755e+02	1.0864e+02	6.3371e-09
2.3906e+02	1.0862e+02	5.8589e-09
2.4054e+02	1.0861e+02	3.7066e-09
2.4206e+02	1.0857e+02	1.6680e-08
2.4357e+02	1.0863e+02	2.2120e-08
2.4509e+02	1.0864e+02	1.9729e-08
2.4658e+02	1.0863e+02	2.0925e-09
2.4811e+02	1.0862e+02	6.2774e-09
2.4962e+02	1.0861e+02	6.9948e-09
2.5115e+02	1.0861e+02	1.6740e-09
2.5266e+02	1.0860e+02	8.8481e-09
2.5420e+02	1.0856e+02	3.2284e-09
2.5571e+02	1.0850e+02	5.8589e-09
2.5724e+02	1.0845e+02	4.1251e-09
2.5877e+02	1.0838e+02	4.1849e-09
2.6030e+02	1.0832e+02	2.0566e-08
2.6183e+02	1.0826e+02	4.3045e-09
2.6335e+02	1.0822e+02	1.0522e-08
2.6487e+02	1.0817e+02	9.8046e-09
2.6639e+02	1.0811e+02	1.7935e-10
2.6793e+02	1.0804e+02	6.8752e-09
2.6943e+02	1.0796e+02	1.2256e-08
2.7097e+02	1.0789e+02	5.9784e-11
2.7251e+02	1.0780e+02	7.7122e-09
2.7405e+02	1.0773e+02	1.6202e-08
2.7560e+02	1.0766e+02	4.4240e-09
2.7714e+02	1.0759e+02	6.2774e-09
2.7868e+02	1.0753e+02	2.6006e-08
2.8023e+02	1.0747e+02	2.8099e-09
2.8176e+02	1.0739e+02	1.6142e-08
2.8331e+02	1.0731e+02	1.6740e-09
2.8487e+02	1.0721e+02	5.2012e-09
2.8643e+02	1.0711e+02	3.5273e-09
2.8799e+02	1.0700e+02	4.9023e-09
2.8955e+02	1.0689e+02	6.7556e-09
2.9111e+02	1.0679e+02	1.3511e-08
2.9266e+02	1.0670e+02	4.3643e-09
2.9421e+02	1.0660e+02	2.6305e-09
2.9578e+02	1.0650e+02	5.6795e-09
2.9733e+02	1.0640e+02	1.4348e-08
2.9888e+02	1.0630e+02	5.5599e-09
3.0043e+02	1.0621e+02	2.6305e-09
3.0200e+02	1.0611e+02	5.3806e-10
3.0356e+02	1.0601e+02	1.2196e-08
3.0512e+02	1.0591e+02	5.9784e-10
3.0669e+02	1.0581e+02	9.2068e-09
3.0825e+02	1.0569e+02	7.4730e-09
3.0983e+02	1.0559e+02	1.1957e-10
3.1141e+02	1.0550e+02	7.1143e-09
3.1297e+02	1.0541e+02	8.0111e-09
3.1453e+02	1.0530e+02	7.1741e-10
3.1609e+02	1.0519e+02	3.1686e-09
3.1765e+02	1.0510e+02	2.0685e-08
3.1923e+02	1.0499e+02	5.0219e-09
3.2080e+02	1.0488e+02	4.2447e-09
3.2236e+02	1.0478e+02	1.3033e-08
3.2393e+02	1.0468e+02	3.5871e-09
3.2548e+02	1.0456e+02	1.8533e-09
3.2712e+02	1.0443e+02	8.9079e-09
3.2869e+02	1.0433e+02	4.7230e-09
3.3027e+02	1.0422e+02	1.0104e-08
3.3185e+02	1.0414e+02	1.1897e-08
3.3344e+02	1.0403e+02	7.3535e-09
3.3503e+02	1.0392e+02	6.0980e-09
3.3660e+02	1.0382e+02	3.8262e-09
3.3819e+02	1.0371e+02	2.6305e-09
3.3979e+02	1.0361e+02	7.7720e-10
3.4138e+02	1.0351e+02	4.1251e-09
3.4297e+02	1.0341e+02	5.0817e-09
3.4457e+02	1.0331e+02	1.6740e-09
3.4618e+02	1.0321e+02	4.8425e-09
3.4778e+02	1.0309e+02	9.6851e-09
3.4939e+02	1.0300e+02	4.6632e-09
3.5099e+02	1.0291e+02	8.3698e-10
3.5258e+02	1.0279e+02	2.3914e-10
3.5419e+02	1.0270e+02	2.0327e-09
3.5578e+02	1.0260e+02	2.3914e-09
3.5738e+02	1.0250e+02	1.5185e-08
3.5899e+02	1.0238e+02	5.7393e-09
3.6058e+02	1.0227e+02	7.4133e-09
3.6215e+02	1.0218e+02	6.4567e-09
3.6375e+02	1.0207e+02	1.4468e-08
3.6536e+02	1.0196e+02	6.9948e-09
3.6698e+02	1.0186e+02	6.6959e-09
3.6858e+02	1.0174e+02	5.9784e-11
3.7020e+02	1.0164e+02	5.6197e-09
3.7183e+02	1.0154e+02	7.0546e-09
3.7345e+02	1.0144e+02	3.4675e-09
3.7507e+02	1.0133e+02	2.6903e-09
3.7668e+02	1.0124e+02	6.7556e-09
3.7830e+02	1.0114e+02	4.1251e-09
3.7992e+02	1.0105e+02	2.5707e-09
3.8153e+02	1.0095e+02	1.5544e-09
3.8315e+02	1.0084e+02	4.1849e-10
3.8477e+02	1.0074e+02	7.4730e-09
3.8640e+02	1.0065e+02	1.1000e-08
3.8804e+02	1.0055e+02	1.6142e-09
3.8967e+02	1.0046e+02	7.2937e-09
3.9131e+02	1.0036e+02	1.1060e-08
3.9294e+02	1.0027e+02	1.3990e-08
3.9458e+02	1.0017e+02	3.4675e-09
3.9623e+02	1.0007e+02	4.9023e-09
3.9787e+02	9.9974e+01	1.1897e-08
3.9951e+02	9.9869e+01	7.1741e-09
4.0114e+02	9.9765e+01	3.5273e-09
4.0277e+02	9.9654e+01	5.6795e-09
4.0440e+02	9.9561e+01	9.8644e-09
4.0605e+02	9.9476e+01	6.5763e-10
4.0769e+02	9.9405e+01	8.1905e-09
4.0934e+02	9.9318e+01	7.7122e-09
4.1099e+02	9.9216e+01	8.0709e-09
4.1261e+02	9.9172e+01	3.5871e-09
4.1425e+02	9.9080e+01	1.1957e-10
4.1592e+02	9.8985e+01	6.0382e-09
4.1754e+02	9.8936e+01	3.3479e-09
4.1919e+02	9.8845e+01	9.5655e-10
4.2085e+02	9.8765e+01	1.4348e-09
4.2251e+02	9.8704e+01	3.5871e-10
4.2415e+02	9.8632e+01	1.6740e-09
4.2582e+02	9.8562e+01	8.9079e-09
4.2748e+02	9.8493e+01	1.4946e-08
4.2914e+02	9.8447e+01	1.0283e-08
4.3079e+02	9.8399e+01	4.3643e-09
4.3244e+02	9.8343e+01	6.6959e-09
4.3410e+02	9.8402e+01	1.3750e-09
4.3576e+02	9.8361e+01	4.4240e-09
4.3743e+02	9.8368e+01	8.5492e-09
4.3910e+02	9.8471e+01	9.5655e-10
4.4077e+02	9.8600e+01	1.0881e-08
4.4244e+02	9.9064e+01	7.5328e-09
4.4412e+02	9.9056e+01	1.3272e-08
4.4581e+02	9.9097e+01	4.1849e-10
4.4749e+02	9.9134e+01	1.6381e-08
4.4917e+02	9.9290e+01	1.5544e-08
4.5085e+02	9.9303e+01	1.1718e-08
4.5254e+02	9.9409e+01	6.2176e-09
4.5420e+02	9.9597e+01	1.7338e-08
4.5589e+02	9.9754e+01	1.5723e-08
4.5757e+02	9.9803e+01	7.8916e-09
4.5926e+02	9.9924e+01	5.7393e-09
4.6094e+02	1.0032e+02	5.1295e-08
4.6262e+02	1.0043e+02	2.0506e-08
4.6430e+02	1.0077e+02	9.0275e-09
4.6598e+02	1.0113e+02	8.6688e-09
4.6768e+02	1.0136e+02	8.0111e-09
4.6938e+02	1.0154e+02	9.8645e-09
4.7107e+02	1.0166e+02	4.3762e-08
4.7276e+02	1.0168e+02	3.0430e-08
4.7443e+02	1.0226e+02	3.7186e-08
4.7613e+02	1.0256e+02	4.3344e-08
4.7784e+02	1.0269e+02	2.2479e-08
4.7954e+02	1.0322e+02	8.6688e-09
4.8126e+02	1.0363e+02	6.6481e-08
4.8297e+02	1.0376e+02	1.5305e-08
4.8464e+02	1.0534e+02	2.0327e-09
4.8637e+02	1.0611e+02	4.1491e-08
4.8807e+02	1.0658e+02	3.4197e-08
4.8978e+02	1.0702e+02	1.8533e-08
4.9149e+02	1.0747e+02	3.1088e-09
4.9319e+02	1.0795e+02	1.1479e-08
4.9491e+02	1.0824e+02	2.8099e-09
4.9663e+02	1.0851e+02	4.7828e-09
4.9834e+02	1.0884e+02	1.0462e-08
5.0005e+02	1.0914e+02	1.1120e-08
5.0175e+02	1.0938e+02	1.2794e-08
5.0347e+02	1.0960e+02	2.8039e-08
5.0519e+02	1.0988e+02	1.0474e-07
5.0692e+02	1.1018e+02	4.7828e-08
5.0863e+02	1.1056e+02	2.9773e-08
5.1036e+02	1.1102e+02	3.4077e-09
5.1208e+02	1.1134e+02	5.9785e-09
5.1381e+02	1.1158e+02	3.5632e-08
5.1555e+02	1.1177e+02	5.2611e-09
5.1729e+02	1.1195e+02	4.0414e-08
5.1902e+02	1.1213e+02	1.0462e-08
5.2075e+02	1.1230e+02	7.2339e-09
5.2248e+02	1.1244e+02	4.3404e-08
5.2423e+02	1.1259e+02	2.8099e-09
5.2595e+02	1.1274e+02	1.6202e-08
5.2774e+02	1.1285e+02	2.5169e-08
5.2948e+02	1.1294e+02	2.6903e-08
5.3122e+02	1.1308e+02	2.2180e-08
5.3295e+02	1.1323e+02	2.2180e-08
5.3466e+02	1.1336e+02	1.2112e-07
5.3641e+02	1.1351e+02	1.5962e-08
5.3815e+02	1.1370e+02	5.6496e-08
5.3991e+02	1.1384e+02	5.0757e-08
5.4164e+02	1.1397e+02	3.5392e-08
5.4336e+02	1.1411e+02	5.3686e-08
5.4511e+02	1.1420e+02	8.3997e-08
5.4687e+02	1.1431e+02	6.3312e-08
5.4863e+02	1.1442e+02	5.8409e-08
5.5037e+02	1.1455e+02	5.1295e-08
5.5211e+02	1.1468e+02	4.5855e-08
5.5386e+02	1.1482e+02	1.3260e-07
5.5562e+02	1.1499e+02	3.8621e-08
5.5736e+02	1.1515e+02	7.5328e-08
5.5912e+02	1.1533e+02	4.1730e-08
5.6087e+02	1.1547e+02	8.5551e-08
5.6262e+02	1.1560e+02	3.6887e-08
5.6438e+02	1.1575e+02	6.3551e-08
5.6615e+02	1.1589e+02	5.0040e-08
5.6791e+02	1.1604e+02	2.9055e-08
5.6966e+02	1.1619e+02	3.4735e-08
5.7143e+02	1.1638e+02	3.7664e-09
5.7319e+02	1.1655e+02	9.0872e-09
5.7495e+02	1.1670e+02	5.1295e-08
5.7669e+02	1.1687e+02	7.4133e-09
5.7846e+02	1.1705e+02	1.2513e-07
5.8025e+02	1.1724e+02	4.2148e-08
5.8202e+02	1.1739e+02	1.0845e-07
5.8378e+02	1.1752e+02	1.4097e-07
5.8555e+02	1.1765e+02	2.2945e-07
5.8733e+02	1.1779e+02	2.8930e-07
5.8911e+02	1.1792e+02	4.3248e-07
5.9091e+02	1.1805e+02	5.0918e-07
5.9267e+02	1.1817e+02	6.5811e-07
5.9445e+02	1.1828e+02	7.9011e-07
5.9624e+02	1.1838e+02	9.6922e-07
5.9801e+02	1.1848e+02	1.1223e-06
5.9980e+02	1.1858e+02	1.3526e-06
6.0157e+02	1.1870e+02	1.5332e-06
6.0336e+02	1.1883e+02	1.7989e-06
6.0516e+02	1.1895e+02	1.9939e-06
6.0696e+02	1.1907e+02	2.2838e-06
6.0872e+02	1.1919e+02	2.4894e-06
6.1049e+02	1.1929e+02	2.7912e-06
6.1228e+02	1.1942e+02	3.0590e-06
6.1408e+02	1.1957e+02	3.3473e-06
6.1588e+02	1.1971e+02	3.6452e-06
6.1768e+02	1.1987e+02	3.9653e-06
6.1947e+02	1.2006e+02	4.2809e-06
6.2128e+02	1.2028e+02	4.6160e-06
6.2308e+02	1.2050e+02	4.9680e-06
6.2489e+02	1.2072e+02	5.3487e-06
6.2668e+02	1.2094e+02	5.7215e-06
6.2848e+02	1.2117e+02	6.1313e-06
6.3028e+02	1.2140e+02	6.5567e-06
6.3210e+02	1.2163e+02	6.9937e-06
6.3390e+02	1.2186e+02	7.4773e-06
6.3572e+02	1.2209e+02	7.9619e-06
6.3754e+02	1.2233e+02	8.4789e-06
6.3936e+02	1.2259e+02	8.9978e-06
6.4119e+02	1.2284e+02	9.5570e-06
6.4300e+02	1.2308e+02	1.0290e-05
6.4482e+02	1.2332e+02	1.1618e-05
6.4666e+02	1.2357e+02	1.3838e-05
6.4849e+02	1.2382e+02	1.7213e-05
6.5032e+02	1.2410e+02	2.1926e-05
6.5214e+02	1.2435e+02	2.8464e-05
6.5398e+02	1.2461e+02	3.5977e-05
6.5577e+02	1.2488e+02	4.2691e-05
6.5759e+02	1.2516e+02	4.8386e-05
6.5942e+02	1.2542e+02	5.3669e-05
6.6125e+02	1.2569e+02	5.8797e-05
6.6310e+02	1.2595e+02	6.3452e-05
6.6494e+02	1.2620e+02	6.7330e-05
6.6677e+02	1.2644e+02	7.0088e-05
6.6859e+02	1.2668e+02	7.1746e-05
6.7043e+02	1.2691e+02	7.2968e-05
6.7225e+02	1.2715e+02	7.3948e-05
6.7409e+02	1.2737e+02	7.4780e-05
6.7594e+02	1.2760e+02	7.5512e-05
6.7776e+02	1.2783e+02	7.6114e-05
6.7958e+02	1.2803e+02	7.6646e-05
6.8143e+02	1.2824e+02	7.7132e-05
6.8328e+02	1.2844e+02	7.7574e-05
6.8514e+02	1.2864e+02	7.7965e-05
6.8699e+02	1.2885e+02	7.8333e-05
6.8883e+02	1.2906e+02	7.8673e-05
6.9068e+02	1.2927e+02	7.9014e-05
6.9252e+02	1.2948e+02	7.9307e-05
6.9436e+02	1.2968e+02	7.9619e-05
6.9621e+02	1.2989e+02	7.9891e-05
6.9807e+02	1.3008e+02	8.0181e-05
6.9992e+02	1.3028e+02	8.0429e-05
7.0176e+02	1.3049e+02	8.0721e-05
7.0363e+02	1.3068e+02	8.0959e-05
7.0549e+02	1.3087e+02	8.1243e-05
7.0736e+02	1.3106e+02	8.1447e-05
7.0921e+02	1.3124e+02	8.1713e-05
7.1107e+02	1.3144e+02	8.1905e-05
7.1294e+02	1.3161e+02	8.2148e-05
7.1482e+02	1.3180e+02	8.2341e-05
7.1669e+02	1.3198e+02	8.2559e-05
7.1856e+02	1.3217e+02	8.2757e-05
7.2043e+02	1.3234e+02	8.2959e-05
7.2230e+02	1.3252e+02	8.3133e-05
7.2417e+02	1.3268e+02	8.3315e-05
7.2604e+02	1.3286e+02	8.3478e-05
7.2790e+02	1.3304e+02	8.3654e-05
7.2978e+02	1.3322e+02	8.3805e-05
7.3166e+02	1.3339e+02	8.3988e-05
7.3356e+02	1.3357e+02	8.4113e-05
7.3543e+02	1.3374e+02	8.4285e-05
7.3731e+02	1.3392e+02	8.4417e-05
7.3920e+02	1.3408e+02	8.4574e-05
7.4109e+02	1.3425e+02	8.4706e-05
7.4298e+02	1.3440e+02	8.4867e-05
7.4487e+02	1.3456e+02	8.4983e-05
7.4676e+02	1.3472e+02	8.5150e-05
7.4865e+02	1.3488e+02	8.5259e-05
7.5054e+02	1.3501e+02	8.5395e-05
7.5245e+02	1.3516e+02	8.5514e-05
7.5434e+02	1.3529e+02	8.5646e-05
7.5623e+02	1.3542e+02	8.5757e-05
7.5812e+02	1.3555e+02	8.5876e-05
7.6002e+02	1.3569e+02	8.5997e-05
7.6193e+02	1.3582e+02	8.6119e-05
7.6382e+02	1.3596e+02	8.6216e-05
7.6573e+02	1.3609e+02	8.6331e-05
7.6763e+02	1.3623e+02	8.6442e-05
7.6963e+02	1.3638e+02	8.6555e-05
7.7155e+02	1.3650e+02	8.6662e-05
7.7346e+02	1.3663e+02	8.6756e-05
7.7537e+02	1.3676e+02	8.6875e-05
7.7728e+02	1.3688e+02	8.6965e-05
7.7920e+02	1.3700e+02	8.7068e-05
7.8112e+02	1.3713e+02	8.7162e-05
7.8304e+02	1.3726e+02	8.7262e-05
7.8493e+02	1.3739e+02	8.7356e-05
7.8685e+02	1.3751e+02	8.7452e-05
7.8875e+02	1.3763e+02	8.7530e-05
7.9067e+02	1.3776e+02	8.7627e-05
7.9259e+02	1.3789e+02	8.7724e-05
7.9451e+02	1.3801e+02	8.7816e-05
7.9643e+02	1.3813e+02	8.7894e-05
7.9836e+02	1.3825e+02	8.7989e-05
8.0028e+02	1.3838e+02	8.8071e-05
8.0220e+02	1.3850e+02	8.8159e-05
8.0412e+02	1.3862e+02	8.8249e-05
8.0606e+02	1.3876e+02	8.8321e-05
8.0799e+02	1.3888e+02	8.8405e-05
8.0989e+02	1.3900e+02	8.8496e-05
8.1183e+02	1.3913e+02	8.8570e-05
8.1375e+02	1.3924e+02	8.8643e-05
8.1569e+02	1.3936e+02	8.8732e-05
8.1761e+02	1.3949e+02	8.8816e-05
8.1956e+02	1.3959e+02	8.8882e-05
8.2149e+02	1.3970e+02	8.8967e-05
8.2343e+02	1.3982e+02	8.9046e-05
8.2537e+02	1.3992e+02	8.9124e-05
8.2731e+02	1.4005e+02	8.9198e-05
8.2925e+02	1.4016e+02	8.9258e-05
8.3120e+02	1.4028e+02	8.9350e-05
8.3313e+02	1.4039e+02	8.9427e-05
8.3508e+02	1.4049e+02	8.9494e-05
8.3703e+02	1.4060e+02	8.9568e-05
8.3899e+02	1.4072e+02	8.9643e-05
8.4096e+02	1.4082e+02	8.9713e-05
8.4292e+02	1.4095e+02	8.9787e-05
8.4486e+02	1.4105e+02	8.9876e-05
8.4678e+02	1.4117e+02	8.9933e-05
8.4874e+02	1.4128e+02	9.0004e-05
8.5071e+02	1.4140e+02	9.0084e-05
8.5267e+02	1.4149e+02	9.0151e-05
8.5464e+02	1.4159e+02	9.0214e-05
8.5659e+02	1.4169e+02	9.0292e-05
8.5855e+02	1.4180e+02	9.0356e-05
8.6051e+02	1.4191e+02	9.0430e-05
8.6248e+02	1.4202e+02	9.0503e-05
8.6445e+02	1.4213e+02	9.0570e-05
8.6641e+02	1.4223e+02	9.0638e-05
8.6838e+02	1.4234e+02	9.0693e-05
8.7036e+02	1.4245e+02	9.0771e-05
8.7232e+02	1.4255e+02	9.0838e-05
8.7430e+02	1.4266e+02	9.0896e-05
8.7626e+02	1.4275e+02	9.0967e-05
8.7824e+02	1.4284e+02	9.1032e-05
8.8022e+02	1.4293e+02	9.1103e-05
8.8220e+02	1.4302e+02	9.1161e-05
8.8418e+02	1.4311e+02	9.1226e-05
8.8616e+02	1.4320e+02	9.1293e-05
8.8814e+02	1.4331e+02	9.1350e-05
8.9012e+02	1.4340e+02	9.1415e-05
8.9211e+02	1.4350e+02	9.1476e-05
8.9409e+02	1.4360e+02	9.1541e-05
8.9608e+02	1.4369e+02	9.1607e-05
8.9807e+02	1.4379e+02	9.1662e-05
9.0007e+02	1.4388e+02	9.1728e-05
9.0206e+02	1.4397e+02	9.1786e-05
9.0404e+02	1.4408e+02	9.1851e-05
9.0601e+02	1.4417e+02	9.1903e-05
9.0799e+02	1.4426e+02	9.1973e-05
9.0995e+02	1.4435e+02	9.2023e-05
9.1195e+02	1.4446e+02	9.2092e-05
9.1394e+02	1.4455e+02	9.2145e-05
9.1593e+02	1.4466e+02	9.2206e-05
9.1794e+02	1.4476e+02	9.2264e-05
9.1994e+02	1.4487e+02	9.2313e-05
9.2194e+02	1.4499e+02	9.2384e-05
9.2396e+02	1.4510e+02	9.2450e-05
9.2595e+02	1.4522e+02	9.2503e-05
9.2795e+02	1.4534e+02	9.2564e-05
9.2996e+02	1.4546e+02	9.2625e-05
9.3195e+02	1.4558e+02	9.2686e-05
9.3394e+02	1.4570e+02	9.2747e-05
9.3596e+02	1.4583e+02	9.2803e-05
9.3797e+02	1.4595e+02	9.2858e-05
9.3997e+02	1.4607e+02	9.2921e-05
9.4197e+02	1.4619e+02	9.2983e-05
9.4396e+02	1.4631e+02	9.3036e-05
9.4594e+02	1.4642e+02	9.3103e-05
9.4797e+02	1.4655e+02	9.3174e-05
9.4997e+02	1.4666e+02	9.3230e-05
9.5197e+02	1.4679e+02	9.3292e-05
9.5398e+02	1.4690e+02	9.3350e-05
9.5598e+02	1.4702e+02	9.3409e-05
9.5800e+02	1.4714e+02	9.3474e-05
9.6000e+02	1.4725e+02	9.3527e-05
9.6201e+02	1.4737e+02	9.3592e-05
9.6402e+02	1.4749e+02	9.3644e-05
9.6603e+02	1.4762e+02	9.3701e-05
9.6804e+02	1.4774e+02	9.3767e-05
9.7006e+02	1.4786e+02	9.3826e-05
9.7210e+02	1.4798e+02	9.3887e-05
9.7414e+02	1.4811e+02	9.3951e-05
9.7618e+02	1.4824e+02	9.4012e-05
9.7821e+02	1.4837e+02	9.4077e-05
9.8026e+02	1.4850e+02	9.4132e-05
9.8230e+02	1.4862e+02	9.4190e-05
9.8434e+02	1.4874e+02	9.4249e-05
9.8636e+02	1.4886e+02	9.4314e-05
9.8841e+02	1.4898e+02	9.4381e-05
9.9047e+02	1.4910e+02	9.4433e-05
9.9253e+02	1.4922e+02	9.4487e-05
9.9458e+02	1.4935e+02	9.4570e-05
9.9664e+02	1.4948e+02	9.4617e-05
9.9869e+02	1.4960e+02	9.4668e-05
1.0007e+03	1.4972e+02	9.4723e-05
